
Host: nidavellir

Timers On : Wed Jun 11 14:17:21 2025
Timers Off: Wed Jun 11 14:17:22 2025

Wall Time:        1.06 seconds

                                                       Time (seconds)
Module                                       User      System        Wall        Calls

--------------------------------------------------------------------------------------

**************************************************************************************
